 Gaussian 09, Revision E.01,
 Gaussian 09:  ES64L-G09RevE.01 30-Nov-2015

 ----------------------------------------------------------------------
 #p opt freq=raman b3lyp/def2svp pop(nbo) nosymm int=ultrafine empirica
 ldispersion=GD3BJ
 ----------------------------------------------------------------------

 -------
 comment
 -------
 Symbolic Z-matrix:
 Charge =  0 Multiplicity = 1

 SCF Done:  E(RB3LYP) =  -996.301913246     A.U. after   19 cycles
 SCF Done:  E(RB3LYP) =  -996.302679202     A.U. after   12 cycles
 SCF Done:  E(RB3LYP) =  -996.300745447     A.U. after   13 cycles
 SCF Done:  E(RB3LYP) =  -996.302760019     A.U. after    9 cycles
 SCF Done:  E(RB3LYP) =  -996.305444316     A.U. after   16 cycles
 SCF Done:  E(RB3LYP) =  -996.306109871     A.U. after   15 cycles
 SCF Done:  E(RB3LYP) =  -996.306397104     A.U. after   12 cycles
 SCF Done:  E(RB3LYP) =  -996.306986349     A.U. after   16 cycles
 SCF Done:  E(RB3LYP) =  -996.307053330     A.U. after   12 cycles
 SCF Done:  E(RB3LYP) =  -996.307061260     A.U. after   11 cycles
 SCF Done:  E(RB3LYP) =  -996.307061724     A.U. after    9 cycles
 SCF Done:  E(RB3LYP) =  -996.307061746     A.U. after    7 cycles
 Optimization completed.
    -- Stationary point found.
 Normal termination of Gaussian 09 at Fri Jun 21 12:50:53 2019.

 -------------------------------------------------------------------
 #P Geom=AllCheck Guess=TCheck SCRF=Check GenChk RB3LYP/def2SVP Freq
 -------------------------------------------------------------------

 Structure from the checkpoint file:  "Au_cas_19813-90-2_spid_2041157.chk"
 -------
 comment
 -------
 Charge =  0 Multiplicity = 1

                          Input orientation:
 ---------------------------------------------------------------------
 Center     Atomic      Atomic             Coordinates (Angstroms)
 Number     Number       Type             X           Y           Z
 ---------------------------------------------------------------------
      1          6           0       -2.447553   -3.083844   -0.112374
      2          6           0       -3.097590   -1.864806    0.099911
      3          6           0       -2.364516   -0.679568    0.166776
      4          6           0       -0.964551   -0.685860    0.024831
      5          6           0       -0.324518   -1.920943   -0.187386
      6          6           0       -1.057400   -3.106179   -0.256154
      7          6           0       -0.185829    0.573258    0.096444
      8          6           0        1.097030    0.601701    0.676918
      9          6           0        1.831631    1.781809    0.744481
     10          6           0        1.305386    2.978315    0.227630
     11          6           0        0.024976    2.961768   -0.351509
     12          6           0       -0.705526    1.778392   -0.413401
     13         16           0        2.195359    4.509280    0.400642
     14         79           0        3.494573    4.581431   -1.501820
     15          1           0        1.513263   -0.311802    1.106223
     16          1           0       -1.687594    1.781524   -0.890473
     17          1           0       -2.881204    0.263055    0.358401
     18          1           0        0.758182   -1.948508   -0.326204
     19          1           0        2.820403    1.791961    1.206704
     20          1           0       -0.384973    3.886646   -0.761354
     21          1           0       -4.183014   -1.837069    0.222627
     22          1           0       -0.540095   -4.052631   -0.431122
     23          1           0       -3.021492   -4.011915   -0.165355
 ---------------------------------------------------------------------

 SCF Done:  E(RB3LYP) =  -996.307061746     A.U. after    1 cycles

 Alpha  occ. eigenvalues --  -88.85129 -10.22134 -10.21057 -10.20637 -10.20175
 Alpha  occ. eigenvalues --  -10.20168 -10.20015 -10.20013 -10.19847 -10.19839
 Alpha  occ. eigenvalues --  -10.19795 -10.19786 -10.19773  -7.94374  -5.91302
 Alpha  occ. eigenvalues --   -5.91001  -5.90215  -4.15987  -2.34952  -2.33019
 Alpha  occ. eigenvalues --   -2.32828  -0.87235  -0.85105  -0.79188  -0.75226
 Alpha  occ. eigenvalues --   -0.74333  -0.74328  -0.68497  -0.62403  -0.61269
 Alpha  occ. eigenvalues --   -0.59483  -0.57644  -0.53547  -0.49136  -0.47927
 Alpha  occ. eigenvalues --   -0.46728  -0.44928  -0.44551  -0.43422  -0.42547
 Alpha  occ. eigenvalues --   -0.42401  -0.39846  -0.38265  -0.37331  -0.36385
 Alpha  occ. eigenvalues --   -0.35544  -0.35014  -0.34527  -0.33772  -0.30943
 Alpha  occ. eigenvalues --   -0.30729  -0.30668  -0.29857  -0.26746  -0.26483
 Alpha  occ. eigenvalues --   -0.26369  -0.22939  -0.22875
 Alpha virt. eigenvalues --   -0.12016  -0.04220  -0.02352  -0.01599  -0.00196
 Alpha virt. eigenvalues --    0.01420   0.01456   0.05863   0.06504   0.07617
 Alpha virt. eigenvalues --    0.08342   0.10314   0.10560   0.11781   0.12756

 Mulliken charges:
               1
     1  C    0.023022
     2  C    0.022691
     3  C   -0.019960
     4  C    0.074993
     5  C   -0.020134
     6  C    0.022647
     7  C    0.088400
     8  C   -0.022367
     9  C    0.059996
    10  C   -0.082002
    11  C    0.058653
    12  C   -0.022175
    13  S   -0.075965
    14  Au   0.037576
    15  H   -0.018716
    16  H   -0.018808
    17  H   -0.020775
    18  H   -0.021434
    19  H   -0.011366
    20  H   -0.011878
    21  H   -0.014560
    22  H   -0.014790
    23  H   -0.013047
 Sum of Mulliken charges =  -0.00000

 Dipole moment (field-independent basis, Debye):
    X=             -0.3954    Y=             -1.8891    Z=             -1.2897  Tot=              2.3213
 Quadrupole moment (field-independent basis, Debye-Ang):
   XX=            -96.0854   YY=           -108.5654   ZZ=           -105.6914
   XY=             -0.8426   XZ=             -4.6706   YZ=             -6.5292

  Exact polarizability: 241.503  98.161 274.913 -28.845 -30.794 123.251
 Approx polarizability: 393.389 102.188 402.127 -52.824 -39.737 235.505

 Summary of Natural Population Analysis:

                                       Natural Population
                Natural  -----------------------------------------------
    Atom  No    Charge         Core      Valence    Rydberg      Total
 -----------------------------------------------------------------------
      C    1   -0.21765      1.99893     4.20368    0.01503     6.21765
      C    2   -0.21279      1.99893     4.19869    0.01517     6.21279
      C    3   -0.20391      1.99891     4.19044    0.01456     6.20391
      C    4   -0.05740      1.99884     4.04114    0.01741     6.05740
      C    5   -0.20415      1.99891     4.19068    0.01456     6.20415
      C    6   -0.21291      1.99893     4.19881    0.01517     6.21291
      C    7   -0.03755      1.99885     4.02118    0.01752     6.03755
      C    8   -0.20489      1.99890     4.19144    0.01455     6.20489
      C    9   -0.19284      1.99882     4.17664    0.01738     6.19284
      C   10   -0.18488      1.99874     4.16516    0.02099     6.18488
      C   11   -0.19287      1.99882     4.17666    0.01740     6.19287
      C   12   -0.20487      1.99890     4.19144    0.01454     6.20487
      S   13   -0.05607      9.99917     6.02605    0.03085    16.05607
     Au   14    0.13240     67.99510    10.86701    0.00549    78.86760
      H   15    0.22784      0.00000     0.76935    0.00281     0.77216
      H   16    0.22780      0.00000     0.76939    0.00281     0.77220
      H   17    0.22471      0.00000     0.77249    0.00280     0.77529
      H   18    0.22443      0.00000     0.77277    0.00280     0.77557
      H   19    0.23656      0.00000     0.76047    0.00296     0.76344
      H   20    0.23665      0.00000     0.76036    0.00300     0.76335
      H   21    0.22441      0.00000     0.77289    0.00270     0.77559
      H   22    0.22429      0.00000     0.77301    0.00270     0.77571
      H   23    0.22368      0.00000     0.77365    0.00267     0.77632
 =======================================================================
   * Total *    0.00000    101.98075    73.76340    0.25585   176.00000

                      1                      2                      3
                      A                      A                      A
 Frequencies --     19.5420                29.4526                67.8760
 Red. masses --      5.6342                 9.0656                 3.7475
 Frc consts  --      0.0013                 0.0046                 0.0102
 IR Inten    --      0.4091                 0.1073                 0.0506
 Raman Activ --      8.3346                 9.0533                29.3495

                      4                      5                      6
                      A                      A                      A
 Frequencies --     73.8704               104.2224               177.4558
 Red. masses --      7.2667                 5.5499                 6.0210
 Frc consts  --      0.0234                 0.0355                 0.1117
 IR Inten    --      0.0023                 0.2440                 0.3513
 Raman Activ --      3.1005                 2.7329                 5.5985

                      7                      8                      9
                      A                      A                      A
 Frequencies --    253.3351               271.4031               313.0670
 Red. masses --      7.0892                 7.8994                 7.5840
 Frc consts  --      0.2681                 0.3428                 0.4380
 IR Inten    --      1.1219                 2.6151                 1.2209
 Raman Activ --      6.7129                24.4492                50.4576

                     10                     11                     12
                      A                      A                      A
 Frequencies --    357.7771               419.3690               420.2873
 Red. masses --      7.2104                 2.9031                 4.6426
 Frc consts  --      0.5438                 0.3008                 0.4832
 IR Inten    --      0.3475                 0.6979                 0.6369
 Raman Activ --     40.5012                 0.8325                 9.4217

                     13                     14                     15
                      A                      A                      A
 Frequencies --    424.0325               483.6628               514.6005
 Red. masses --      2.9142                 8.4938                 3.4366
 Frc consts  --      0.3087                 1.1707                 0.5362
 IR Inten    --      0.6202                 4.7836                 7.3051
 Raman Activ --     62.6293                81.2469                 2.9356

                     16                     17                     18
                      A                      A                      A
 Frequencies --    571.5757               631.4252               650.4007
 Red. masses --      2.5488                 6.4768                 6.8425
 Frc consts  --      0.4906                 1.5214                 1.7054
 IR Inten    --      3.8026                 0.0257                 0.2101
 Raman Activ --      8.6861                10.5302                 3.8387

                     19                     20                     21
                      A                      A                      A
 Frequencies --    674.9183               721.2045               752.4770
 Red. masses --      6.7352                 1.5705                 3.0458
 Frc consts  --      1.8076                 0.4813                 1.0161
 IR Inten    --     12.8346                30.5919                 8.0933
 Raman Activ --     58.1169                 1.2417                 9.4117

                     22                     23                     24
                      A                      A                      A
 Frequencies --    783.4264               792.5456               854.5158
 Red. masses --      5.7211                 2.0459                 1.2448
 Frc consts  --      2.0688                 0.7572                 0.5355
 IR Inten    --      2.2892                28.8464                 0.0207
 Raman Activ --     15.3094                 3.8487                36.0035

                     25                     26                     27
                      A                      A                      A
 Frequencies --    864.0168               868.2795               949.6916
 Red. masses --      1.2491                 1.6391                 1.4818
 Frc consts  --      0.5494                 0.7281                 0.7874
 IR Inten    --      0.4770                18.5358                 0.9610
 Raman Activ --     24.1984                 4.6525                 1.5331

                     28                     29                     30
                      A                      A                      A
 Frequencies --   1000.2823              1004.1526              1005.9657
 Red. masses --      1.4042                 1.4284                 1.3901
 Frc consts  --      0.8278                 0.8486                 0.8288
 IR Inten    --      0.1970                 0.5080                 0.3094
 Raman Activ --      2.1157                36.4567                 8.4515

                     31                     32                     33
                      A                      A                      A
 Frequencies --   1015.4237              1022.9397              1028.3648
 Red. masses --      5.0533                 4.6296                 1.3384
 Frc consts  --      3.0699                 2.8542                 0.8339
 IR Inten    --      4.0524                 5.4272                 0.0358
 Raman Activ --     42.3563               141.8698                 0.9417

                     34                     35                     36
                      A                      A                      A
 Frequencies --   1039.7124              1063.7115              1104.4007
 Red. masses --      3.7229                 1.8624                 1.5045
 Frc consts  --      2.3711                 1.2415                 1.0812
 IR Inten    --      3.6839                 0.5156                 4.5245
 Raman Activ --     41.3613                57.8040                 0.6092

                     37                     38                     39
                      A                      A                      A
 Frequencies --   1107.4394              1125.5751              1171.5424
 Red. masses --      2.9194                 1.3077                 1.0765
 Frc consts  --      2.1095                 0.9762                 0.8705
 IR Inten    --     25.1723                 5.0275                 0.0355
 Raman Activ --   1541.0586                 0.3002                10.9606

                     40                     41                     42
                      A                      A                      A
 Frequencies --   1191.0553              1200.4562              1303.0147
 Red. masses --      1.1185                 1.1327                 1.4226
 Frc consts  --      0.9349                 0.9618                 1.4231
 IR Inten    --      0.2235                 4.1989                 0.3143
 Raman Activ --      9.7085               148.8252                 3.6415

                     43                     44                     45
                      A                      A                      A
 Frequencies --   1312.6954              1316.5707              1347.5995
 Red. masses --      2.0467                 3.1973                 2.8209
 Frc consts  --      2.0780                 3.2653                 3.0183
 IR Inten    --      1.0989                 3.0824                 0.8025
 Raman Activ --      1.5465              1125.2804                 2.7724

                     46                     47                     48
                      A                      A                      A
 Frequencies --   1365.7633              1434.8734              1479.9713
 Red. masses --      3.8231                 3.3002                 2.4921
 Frc consts  --      4.2016                 4.0033                 3.2161
 IR Inten    --      0.1692                14.7851                 2.8113
 Raman Activ --      7.0694                 4.9386                 6.9196

                     49                     50                     51
                      A                      A                      A
 Frequencies --   1507.9781              1540.4391              1596.4461
 Red. masses --      2.2609                 2.8089                 6.4036
 Frc consts  --      3.0291                 3.9271                 9.6157
 IR Inten    --     20.5584                 2.0113                 1.9087
 Raman Activ --    190.7054                81.7170                 5.5928

                     52                     53                     54
                      A                      A                      A
 Frequencies --   1637.7671              1648.3567              1663.5027
 Red. masses --      6.2124                 6.1011                 6.0663
 Frc consts  --      9.8178                 9.7670                 9.8906
 IR Inten    --      1.2397                50.9102                 6.7005
 Raman Activ --      0.9855              5077.6427               710.8487

                     55                     56                     57
                      A                      A                      A
 Frequencies --   3174.4705              3181.2339              3186.7978
 Red. masses --      1.0856                 1.0887                 1.0895
 Frc consts  --      6.4456                 6.4915                 6.5190
 IR Inten    --      4.2868                 2.6150                13.8048
 Raman Activ --     26.1581               174.6226                51.5510

                     58                     59                     60
                      A                      A                      A
 Frequencies --   3188.5973              3192.0372              3196.8464
 Red. masses --      1.0894                 1.0915                 1.0948
 Frc consts  --      6.5257                 6.5526                 6.5922
 IR Inten    --      0.9968                 4.5128                15.3057
 Raman Activ --     29.1493                88.2319                41.7461

                     61                     62                     63
                      A                      A                      A
 Frequencies --   3202.8120              3204.1008              3206.3036
 Red. masses --      1.0996                 1.0955                 1.0968
 Frc consts  --      6.6460                 6.6264                 6.6431
 IR Inten    --     12.0601                 8.0363                 3.9148
 Raman Activ --    264.5021                 6.5377               244.2427

 - Thermochemistry -
 -------------------
 Temperature   298.150 Kelvin.  Pressure   1.00000 Atm.
 Atom     1 has atomic number  6 and mass  12.00000

 Molecular mass:   382.00910 amu.
 Principal axes and moments of inertia in atomic units:
                           1         2         3
     Eigenvalues --  1230.66872********************
           X            0.61948  -0.60433   0.50103
           Y            0.76583   0.60548  -0.21656
           Z           -0.17248   0.51786   0.83790
 This molecule is an asymmetric top.
 Rotational symmetry number  1.
 Warning -- assumption of classical behavior for rotation
           may cause significant error
 Rotational temperatures (Kelvin)      0.07038     0.00536     0.00524
 Rotational constants (GHZ):           1.46647     0.11174     0.10922
 Zero-point vibrational energy     454662.5 (Joules/Mol)
                                  108.66694 (Kcal/Mol)
 Warning -- explicit consideration of  16 degrees of freedom as
           vibrations may cause significant error
 Vibrational temperatures:     28.12    42.38    97.66   106.28   149.95
          (Kelvin)            255.32   364.49   390.49   450.43   514.76
                              603.38   604.70   610.09   695.88   740.39
                              822.37   908.48   935.78   971.06  1037.65
                             1082.65  1127.17  1140.29  1229.46  1243.13
                             1249.26  1366.39  1439.18  1444.75  1447.36
                             1460.97  1471.78  1479.59  1495.91  1530.44
                             1588.98  1593.36  1619.45  1685.59  1713.66
                             1727.19  1874.75  1888.67  1894.25  1938.89
                             1965.03  2064.46  2129.35  2169.64  2216.35
                             2296.93  2356.38  2371.61  2393.41  4567.35
                             4577.08  4585.09  4587.67  4592.62  4599.54
                             4608.13  4609.98  4613.15

 Zero-point correction=                           0.173172 (Hartree/Particle)
 Thermal correction to Energy=                    0.185351
 Thermal correction to Enthalpy=                  0.186295
 Thermal correction to Gibbs Free Energy=         0.129980
 Sum of electronic and zero-point Energies=           -996.133890
 Sum of electronic and thermal Energies=              -996.121710
 Sum of electronic and thermal Enthalpies=            -996.120766
 Sum of electronic and thermal Free Energies=         -996.177082

                     E (Thermal)             CV                S
                      KCal/Mol        Cal/Mol-Kelvin    Cal/Mol-Kelvin
 Total                  116.310             45.423            118.526
 Electronic               0.000              0.000              0.000
 Translational            0.889              2.981             43.713
 Rotational               0.889              2.981             34.151
 Vibrational            114.532             39.461             40.662
 Vibration     1          0.593              1.986              6.680
 Vibration     2          0.593              1.984              5.866
 Vibration     3          0.598              1.970              4.214
 Vibration     4          0.599              1.966              4.047
 Vibration     5          0.605              1.946              3.374
 Vibration     6          0.628              1.870              2.355
 Vibration     7          0.665              1.757              1.707
 Vibration     8          0.675              1.726              1.587
 Vibration     9          0.701              1.649              1.346
 Vibration    10          0.733              1.559              1.132
 Vibration    11          0.782              1.428              0.894
 Vibration    12          0.783              1.426              0.891
 Vibration    13          0.786              1.418              0.878
 Vibration    14          0.840              1.286              0.700
 Vibration    15          0.870              1.218              0.623
 Vibration    16          0.928              1.093              0.501

 Optimization completed.
    -- Stationary point found.
 Normal termination of Gaussian 09 at Fri Jun 21 12:53:49 2019.
